19
 Atoms. Timestep: 0
C -0.631333 -0.086814 0.00174635
C 0.752713 -0.141516 -0.000900063
C 1.2276 1.19312 -0.00213254
C 0.118216 2.03285 -0.000245356
N -0.997271 1.22759 0.00216121
H -1.92672 1.62201 0.00365971
H -1.36835 -0.876037 0.00342662
H 1.35022 -1.04201 -0.00181667
H 2.26195 1.50679 -0.00422716
C -0.0442811 3.48034 -0.000407229
C 1.05142 4.36305 -0.00284858
N -1.32032 3.92619 0.00189545
C 0.812136 5.73086 -0.00271416
H 2.06413 3.97452 -0.00457845
C -1.52853 5.24571 0.00185568
C -0.506163 6.19337 -0.000357766
H 1.64324 6.43037 -0.00528025
H -2.57037 5.56219 0.00379726
H -0.735894 7.25353 -0.00021789
19
 Atoms. Timestep: 40
C -0.627568 -0.0644623 -0.00587163
C 0.75298 -0.0909438 0.0604921
C 1.22979 1.237 0.0336384
C 0.143781 2.04152 0.0186859
N -0.982971 1.24025 -0.0256697
H -1.87457 1.65291 -0.0967325
H -1.38387 -0.827813 0.0536552
H 1.42537 -0.932192 0.0433115
H 2.2642 1.54917 0.0167322
C -0.0617608 3.47704 -0.0129541
C 1.00598 4.36533 -0.0779229
N -1.30279 3.89922 -0.0211068
C 0.783813 5.7076 -0.037132
H 2.01189 4.00568 -0.206034
C -1.50425 5.20548 -0.0166537
C -0.510013 6.13684 0.0764773
H 1.56573 6.44301 0.102317
H -2.53877 5.49361 0.0284435
H -0.729081 7.19304 0.226069
19
 Atoms. Timestep: 80
C -0.587636 -0.0260928 0.00845126
C 0.772722 -0.0705943 0.102376
C 1.24619 1.26049 0.0859247
C 0.10646 2.05983 0.012825
N -0.965092 1.27411 -0.0505094
H -1.865 1.59842 -0.11942
H -1.2663 -0.856742 -0.0215474
H 1.29901 -1.00968 0.183273
H 2.27918 1.58783 0.13179
C -0.0280278 3.469 -0.0574748
C 1.02451 4.33905 -0.181101
N -1.32492 3.87128 -0.0523448
C 0.776052 5.70639 -0.0137364
H 2.01072 3.92313 -0.258369
C -1.55137 5.16717 0.010016
C -0.539431 6.1302 0.141592
H 1.65998 6.33481 -0.094836
H -2.55975 5.51133 -0.0344876
H -0.837992 7.16722 0.325142
19
 Atoms. Timestep: 120
C -0.559861 -0.0192787 0.0243849
C 0.813195 -0.0742663 0.145905
C 1.24437 1.27114 0.152207
C 0.16648 2.06333 -0.0182051
N -0.996483 1.25696 -0.0730721
H -1.86435 1.6713 -0.119573
H -1.27658 -0.809254 -0.092011
H 1.40112 -0.964948 0.307054
H 2.24809 1.65247 0.306874
C -0.0681808 3.487 -0.133343
C 1.05258 4.35263 -0.239733
N -1.33602 3.86205 -0.0841313
C 0.777388 5.67599 -0.0118343
H 2.05448 4.00981 -0.384775
C -1.58511 5.17316 0.0604498
C -0.56787 6.1054 0.185499
H 1.50358 6.48436 -0.118113
H -2.61391 5.40079 0.0159174
H -0.779714 7.18239 0.278648
19
 Atoms. Timestep: 160
C -0.563434 -0.065885 0.0263451
C 0.815296 -0.0618799 0.211239
C 1.26698 1.27806 0.209347
C 0.118177 2.05515 -0.0675333
N -0.917697 1.25143 -0.096462
H -1.84132 1.55729 -0.182535
H -1.25942 -0.881276 -0.00821596
H 1.49243 -0.893155 0.321003
H 2.2822 1.62158 0.403929
C -0.0429167 3.48978 -0.199682
C 1.01797 4.38269 -0.253514
N -1.33549 3.89075 -0.104447
C 0.714308 5.70867 -0.0370325
H 1.98088 4.02648 -0.521471
C -1.59257 5.16427 0.0998646
C -0.566204 6.06746 0.190406
H 1.52652 6.43722 0.0505413
H -2.57727 5.49583 0.237505
H -0.777861 7.14109 0.332542
19
 Atoms. Timestep: 200
C -0.504546 -0.0926561 0.0443155
C 0.822606 -0.0535672 0.293719
C 1.23335 1.29526 0.225287
C 0.192636 2.06157 -0.0996409
N -0.917281 1.16856 -0.151662
H -1.83278 1.55909 -0.323403
H -1.2326 -0.874004 0.0744818
H 1.38105 -0.960928 0.413989
H 2.25788 1.62863 0.364782
C -0.0720269 3.48699 -0.230291
C 0.969497 4.39358 -0.289866
N -1.33188 3.8832 -0.111167
C 0.72693 5.74089 -0.0522926
H 1.96999 4.07157 -0.409457
C -1.58503 5.15505 0.135078
C -0.602905 6.14524 0.190367
H 1.56604 6.44538 0.0237541
H -2.58033 5.38437 0.351055
H -0.912744 7.1485 0.554865
19
 Atoms. Timestep: 240
C -0.488305 -0.102733 0.0823388
C 0.869277 -0.0866284 0.384664
C 1.29473 1.27732 0.22736
C 0.124416 2.01249 -0.151185
N -0.897867 1.16876 -0.243903
H -1.89371 1.40535 -0.441087
H -1.105 -0.977574 0.0589988
H 1.50754 -0.894061 0.71076
H 2.2927 1.71167 0.363912
C -0.0875334 3.47654 -0.236573
C 0.959212 4.44573 -0.316857
N -1.35668 3.85364 -0.0976879
C 0.690444 5.77819 -0.0578437
H 1.94155 4.06897 -0.328276
C -1.56926 5.17417 0.16448
C -0.62251 6.1911 0.207192
H 1.50469 6.50869 -0.120967
H -2.58297 5.35421 0.320029
H -0.853944 7.23034 0.545683
19
 Atoms. Timestep: 280
C -0.440327 -0.127281 0.124929
C 0.897242 -0.0375194 0.457002
C 1.26176 1.27839 0.200393
C 0.174693 2.00831 -0.198209
N -0.874145 1.08761 -0.320987
H -1.86154 1.43737 -0.521629
H -1.14057 -0.92696 0.0192239
H 1.48471 -0.82032 0.896798
H 2.24004 1.69919 0.452397
C -0.0743523 3.48417 -0.228786
C 0.933574 4.44155 -0.288262
N -1.36605 3.89606 -0.0539302
C 0.645671 5.80474 -0.0921075
H 1.92092 4.19165 -0.562777
C -1.60439 5.16905 0.167945
C -0.622296 6.14996 0.228552
H 1.44589 6.54855 -0.133428
H -2.58096 5.52796 0.301712
H -0.910172 7.22629 0.310939
19
 Atoms. Timestep: 320
C -0.423773 -0.148152 0.126978
C 0.865995 -0.00493003 0.510234
C 1.27421 1.34243 0.220239
C 0.176646 2.03098 -0.271997
N -0.798619 1.05547 -0.368626
H -1.82413 1.28898 -0.516475
H -1.02939 -1.02642 0.199397
H 1.50417 -0.780343 0.893425
H 2.24659 1.76748 0.502252
C -0.10272 3.49876 -0.193905
C 0.940435 4.44195 -0.28753
N -1.34714 3.89319 -0.00336626
C 0.652612 5.7632 -0.112667
H 1.87662 4.1393 -0.669383
C -1.6489 5.18524 0.168612
C -0.664187 6.13949 0.205835
H 1.42317 6.5259 -0.212647
H -2.69933 5.33358 0.277248
H -1.00501 7.19718 0.316191
19
 Atoms. Timestep: 360
C -0.386061 -0.132737 0.117457
C 0.917243 0.0468045 0.540519
C 1.28956 1.38794 0.27669
C 0.165072 2.02063 -0.285496
N -0.806532 1.07625 -0.411977
H -1.80191 1.30772 -0.592141
H -1.05341 -0.969891 0.188252
H 1.55316 -0.739135 0.913406
H 2.25332 1.87059 0.489714
C -0.104173 3.48347 -0.188039
C 0.945376 4.41184 -0.329983
N -1.36641 3.84248 0.0436439
C 0.617524 5.75063 -0.10264
H 1.92762 4.04257 -0.494881
C -1.65831 5.14455 0.173982
C -0.703956 6.15595 0.143182
H 1.40477 6.48043 -0.262986
H -2.69853 5.40932 0.318414
H -0.857233 7.22032 0.419266
