50
Lattice="14.548722022913216 0.0 0.0 7.274361011456607 12.599562864440975 0.0 0.0 0.0 10.0" Properties=species:S:1:pos:R:3:tags:I:1:forces:R:3 energy=-45229.733230508 free_energy=-45229.733230508 stress="-0.0 -0.0 -0.0 -0.0 -0.0 -0.0 -0.0 -0.0 -0.0" pbc="T T T"
Au       0.00000000       0.00000000       0.00000000        2       0.02185430       0.05611774      -0.72159070
Au       2.90974440       1.67994172       2.37579636        1      -0.03547407       0.02145350       0.73631095
Au       1.45487220       2.51991257       0.00000000        2      -0.01924348      -0.04556032      -0.71896910
Au       4.36461661       4.19985429       2.37579636        1      -0.05396672      -0.02678339       0.74652508
Au       2.90974440       5.03982515       0.00000000        2       0.04034861       0.03865076      -0.69058572
Au       5.81948881       6.71976686       2.37579636        1      -0.07394758       0.01729238       0.66237416
Au       4.36461661       7.55973772       0.00000000        2      -0.04654475      -0.04980288      -0.73466521
Au       7.27436101       9.23967943       2.37579636        1       0.00534694       0.07103434       0.76061997
Au       5.81948881      10.07965029       0.00000000        2       0.05138580      -0.00273995      -0.67397812
Au       8.72923321      11.75959201       2.37579636        1      -0.03650288      -0.02957574       0.71987128
Au       2.90974440       0.00000000       0.00000000        2      -0.01273521      -0.01058178      -0.79742081
Au       5.81948881       1.67994172       2.37579636        1       0.01227689       0.01127959       0.75219564
Au       4.36461661       2.51991257       0.00000000        2      -0.02439549       0.01144071      -0.72773022
Au       7.27436101       4.19985429       2.37579636        1      -0.01744336      -0.02235855       0.69231171
Au       5.81948881       5.03982515       0.00000000        2      -0.02516363       0.03389087      -0.73891679
Au       8.72923321       6.71976686       2.37579636        1       0.05756636       0.01632539       0.69718226
Au       7.27436101       7.55973772       0.00000000        2       0.02561027      -0.02601195      -0.77241023
Au      10.18410542       9.23967943       2.37579636        1      -0.02467323       0.01342665       0.74333585
Au       8.72923321      10.07965029       0.00000000        2       0.02356052       0.02127537      -0.71706983
Au      11.63897762      11.75959201       2.37579636        1      -0.03463864      -0.00966038       0.69884697
Au       5.81948881       0.00000000       0.00000000        2      -0.00772569       0.01900951      -0.72286193
Au       8.72923321       1.67994172       2.37579636        1      -0.02479327       0.00157646       0.70105287
Au       7.27436101       2.51991257       0.00000000        2       0.00662491      -0.04409122      -0.69663609
Au      10.18410542       4.19985429       2.37579636        1       0.07398625       0.00604837       0.72683946
Au       8.72923321       5.03982515       0.00000000        2      -0.02922503       0.06613438      -0.68541524
Au      11.63897762       6.71976686       2.37579636        1      -0.08912081       0.00090357       0.69356638
Au      10.18410542       7.55973772       0.00000000        2      -0.01848718      -0.03501310      -0.72202119
Au      13.09384982       9.23967943       2.37579636        1       0.03923248       0.02899338       0.69593133
Au      11.63897762      10.07965029       0.00000000        2      -0.08998842       0.07120903      -0.67332101
Au      14.54872202      11.75959201       2.37579636        1       0.02122188      -0.01100255       0.70996221
Au       8.72923321       0.00000000       0.00000000        2       0.01463879       0.00873059      -0.78206449
Au      11.63897762       1.67994172       2.37579636        1       0.05328307       0.02091780       0.72499899
Au      10.18410542       2.51991257       0.00000000        2       0.01156329      -0.05240691      -0.72842981
Au      13.09384982       4.19985429       2.37579636        1      -0.00266388      -0.05354403       0.72478307
Au      11.63897762       5.03982515       0.00000000        2       0.02196224       0.01406882      -0.72938549
Au      14.54872202       6.71976686       2.37579636        1       0.07833371      -0.00456580       0.66488891
Au      13.09384982       7.55973772       0.00000000        2      -0.03558170      -0.07778756      -0.71135779
Au      16.00359423       9.23967943       2.37579636        1       0.01662724       0.05016117       0.74171212
Au      14.54872202      10.07965029       0.00000000        2       0.06502967       0.02834625      -0.64310536
Au      17.45846643      11.75959201       2.37579636        1      -0.00231761      -0.05072616       0.71273612
Au      11.63897762       0.00000000       0.00000000        2      -0.02659088       0.03618246      -0.77514919
Au      14.54872202       1.67994172       2.37579636        1       0.02107609      -0.03268190       0.75450115
Au      13.09384982       2.51991257       0.00000000        2      -0.00673485      -0.04249302      -0.73360229
Au      16.00359423       4.19985429       2.37579636        1       0.04213153       0.00320136       0.75292794
Au      14.54872202       5.03982515       0.00000000        2      -0.02127348      -0.03939326      -0.75507827
Au      17.45846643       6.71976686       2.37579636        1       0.03383655      -0.01352086       0.72655078
Au      16.00359423       7.55973772       0.00000000        2       0.03525965      -0.02748937      -0.71353269
Au      18.91333863       9.23967943       2.37579636        1      -0.01750908      -0.00990054       0.78277691
Au      17.45846643      10.07965029       0.00000000        2      -0.03283016       0.01347803      -0.71820746
Au      20.36821083      11.75959201       2.37579636        1       0.03683827       0.03652036       0.75555553
