12
Lattice="10.0 0.0 0.0 0.0 10.0 0.0 0.0 0.0 10.0" Properties=species:S:1:pos:R:3:forces:R:3 energy=-1374.0605357346 free_energy=-1374.0605357346 stress="-0.0 -0.0 -0.0 -0.0 -0.0 -0.0 -0.0 -0.0 -0.0" pbc="T T T"
C        3.33532872       5.53589610       4.94666384       0.08374441      -0.35044387       0.00937911
C        3.52446170       4.14915855       4.98252111      -0.27620450       0.35035548      -0.01382689
C        4.80336987       3.61151182       5.02339576       0.01346178      -0.65146383       0.01630978
C        5.89321398       4.45958259       5.02830364       0.08799778       0.23958841      -0.00443110
C        5.71905061       5.83914781       4.99293592       0.54740407      -0.27709145       0.01838022
C        4.44034688       6.37573591       4.95210460       0.14954180       0.31203889      -0.00407755
Br       7.65123588       3.70676411       5.08478719       0.18178028       0.00646949       0.00344974
H        2.34296043       5.95049419       4.91502714      -0.48377742       0.14590063      -0.01402897
H        2.66706851       3.48979253       4.97847962      -0.25462099      -0.21624173      -0.00069575
H        4.97682585       2.54002341       5.05174238      -0.15887007      -0.16961994       0.00066000
H        6.60457763       6.44930348       4.99875162       0.28581534       0.51550137      -0.00516447
H        4.34530425       7.45882626       4.92523351      -0.17547259       0.09631207      -0.00637997
12
Lattice="10.0 0.0 0.0 0.0 10.0 0.0 0.0 0.0 10.0" Properties=species:S:1:pos:R:3:forces:R:3 energy=-1374.0850738905 free_energy=-1374.0850738905 stress="-0.0 -0.0 -0.0 -0.0 -0.0 -0.0 -0.0 -0.0 -0.0" pbc="T T T"
C        3.33515162       5.53427758       4.94670409       0.00197302      -0.00725167      -0.00043529
C        3.52110281       4.14671779       4.98249660      -0.16763556       0.26561094      -0.00902709
C        4.80205998       3.60349117       5.02357636       0.01557153      -0.26930241       0.00784332
C        5.89238444       4.45984537       5.02825039       0.14497015      -0.04583461       0.00380775
C        5.73141595       5.83833581       4.99323472       0.18067751      -0.03823333       0.00424869
C        4.44905678       6.37858497       4.95222329      -0.12311450       0.10385045      -0.00509041
Br       7.65620415       3.70695735       5.08488533       0.12233572       0.00650292       0.00204460
H        2.33036530       5.95397940       4.91467102      -0.02888264      -0.01640998      -0.00017879
H        2.66208055       3.48617855       4.97845402      -0.20788273      -0.16326080      -0.00085441
H        4.97345193       2.53314711       5.05183087      -0.12634427      -0.19835825       0.00213258
H        6.60998715       6.46075734       4.99861478       0.28797851       0.39381869      -0.00233930
H        4.34048189       7.46398582       4.92500105      -0.09387350      -0.02704509      -0.00175591
12
Lattice="10.0 0.0 0.0 0.0 10.0 0.0 0.0 0.0 10.0" Properties=species:S:1:pos:R:3:forces:R:3 energy=-1374.0973268441 free_energy=-1374.0973268441 stress="-0.0 -0.0 -0.0 -0.0 -0.0 -0.0 -0.0 -0.0 -0.0" pbc="T T T"
C        3.33416787       5.53613247       4.94663641      -0.02762289       0.03890923      -0.00220839
C        3.51667140       4.14711483       4.98239870      -0.06661956       0.06678105      -0.00207865
C        4.80102558       3.59596158       5.02377166      -0.04932703       0.00879038      -0.00049635
C        5.89414738       4.45654423       5.02833542       0.12287847      -0.02791398       0.00326761
C        5.74210117       5.83947776       4.99343723      -0.03938667       0.07503188      -0.00371734
C        4.45301314       6.38062817       4.95225828      -0.09330650       0.00110696      -0.00195101
Br       7.66207946       3.70723380       5.08499393       0.08737177      -0.00911665       0.00158609
H        2.32243746       5.95546561       4.91446573       0.18238452      -0.06611483       0.00561250
H        2.65488627       3.48098936       4.97841592      -0.07098100      -0.02254421      -0.00096542
H        4.96879007       2.52347918       5.05196086      -0.11707050      -0.12843658       0.00087472
H        6.61918665       6.47598813       4.99847923       0.11510214       0.16877589      -0.00112721
H        4.33536438       7.46734838       4.92479930      -0.03555567      -0.09867688       0.00120833
12
Lattice="10.0 0.0 0.0 0.0 10.0 0.0 0.0 0.0 10.0" Properties=species:S:1:pos:R:3:forces:R:3 energy=-1374.1000550328 free_energy=-1374.1000550328 stress="-0.0 -0.0 -0.0 -0.0 -0.0 -0.0 -0.0 -0.0 -0.0" pbc="T T T"
C        3.33341793       5.53704954       4.94658657       0.04130778       0.00626665       0.00025298
C        3.51431880       4.14775937       4.98234942      -0.02217800      -0.01063682       0.00056661
C        4.79968712       3.59395898       5.02381370       0.00424633       0.05364764      -0.00064176
C        5.89651900       4.45544507       5.02840228       0.02381086      -0.00325395       0.00060499
C        5.74485407       5.84108542       4.99344011      -0.01516829       0.08251735      -0.00324322
C        4.45334926       6.38127964       4.95225112      -0.05819091      -0.06114690       0.00007177
Br       7.66539330       3.70713224       5.08505576       0.06599303      -0.00882006       0.00108822
H        2.32270749       5.95498590       4.91448491       0.14224261      -0.03610763       0.00397142
H        2.65173861       3.47928044       4.97838781      -0.02171547       0.02991709      -0.00100763
H        4.96537036       2.51848072       5.05201215      -0.11989122      -0.03348199      -0.00128347
H        6.62351624       6.48318646       4.99841607      -0.00603657       0.05659342      -0.00135802
H        4.33316537       7.46686304       4.92475386      -0.02584776      -0.06862789       0.00076222
12
Lattice="10.0 0.0 0.0 0.0 10.0 0.0 0.0 0.0 10.0" Properties=species:S:1:pos:R:3:forces:R:3 energy=-1374.1012905936 free_energy=-1374.1012905936 stress="-0.0 -0.0 -0.0 -0.0 -0.0 -0.0 -0.0 -0.0 -0.0" pbc="T T T"
C        3.33414264       5.53713045       4.94658578       0.02465931      -0.04406346       0.00135716
C        3.51282202       4.14806447       4.98233197       0.04352180      -0.04851636       0.00268844
C        4.79938859       3.59373225       5.02383202      -0.00382248       0.03837959      -0.00054871
C        5.89781422       4.45523816       5.02843121      -0.00410361       0.04254229      -0.00108454
C        5.74607216       5.84303609       4.99339462      -0.01864597       0.01558365      -0.00151915
C        4.45244855       6.38051986       4.95224745       0.04123656      -0.03456848       0.00139273
Br       7.66802720       3.70692858       5.08510193       0.03899659      -0.00203658       0.00033614
H        2.32515039       5.95426237       4.91455620       0.08304848      -0.00623712       0.00191480
H        2.64999278       3.47911317       4.97835706      -0.00851817       0.04319206      -0.00094353
H        4.96161363       2.51599443       5.05200278      -0.10848787       0.02813588      -0.00239206
H        6.62507916       6.48723744       4.99836157      -0.04861360       0.02032841      -0.00158415
H        4.33171817       7.46543885       4.92474666      -0.03050551      -0.04633063       0.00016779
12
Lattice="10.0 0.0 0.0 0.0 10.0 0.0 0.0 0.0 10.0" Properties=species:S:1:pos:R:3:forces:R:3 energy=-1374.102234915 free_energy=-1374.102234915 stress="-0.0 -0.0 -0.0 -0.0 -0.0 -0.0 -0.0 -0.0 -0.0" pbc="T T T"
C        3.33505926       5.53610492       4.94661440       0.06359973      -0.05163813       0.00276259
C        3.51267732       4.14765251       4.98236758       0.03076814      -0.04828445       0.00214418
C        4.79903591       3.59418409       5.02383687       0.03940830       0.01257258       0.00101976
C        5.89888584       4.45613337       5.02843117      -0.02588762       0.01389855      -0.00094890
C        5.74633547       5.84448365       4.99333171       0.03771221      -0.01270825       0.00075563
C        4.45253289       6.37949591       4.95226542       0.03740624      -0.02761140       0.00090086
Br       7.67063325       3.70675145       5.08513966       0.00441128       0.01261301      -0.00075275
H        2.32881712       5.95355857       4.91465248       0.00467659       0.02185477      -0.00051873
H        2.64852482       3.47982500       4.97831603       0.00812069       0.04348116      -0.00048588
H        4.95671307       2.51489786       5.05194510      -0.08311691       0.06174908      -0.00256182
H        6.62530903       6.49058934       4.99829161      -0.07670660      -0.00616594      -0.00173435
H        4.33009538       7.46328797       4.92474996      -0.03131499      -0.01357927      -0.00059740
12
Lattice="10.0 0.0 0.0 0.0 10.0 0.0 0.0 0.0 10.0" Properties=species:S:1:pos:R:3:forces:R:3 energy=-1374.1029714369 free_energy=-1374.1029714369 stress="-0.0 -0.0 -0.0 -0.0 -0.0 -0.0 -0.0 -0.0 -0.0" pbc="T T T"
C        3.33719345       5.53443166       4.94669050       0.01570429      -0.04044890       0.00176097
C        3.51294278       4.14661968       4.98242916       0.04882657      -0.01958522       0.00173296
C        4.79965379       3.59490961       5.02386234       0.01445667      -0.01239347       0.00106415
C        5.89945701       4.45686855       5.02842353       0.00412530       0.00667569      -0.00015235
C        5.74718483       5.84557354       4.99328820       0.01930611      -0.05472806       0.00159946
C        4.45277295       6.37804094       4.95228702       0.06835080      -0.00181864       0.00088565
Br       7.67279893       3.70688247       5.08515324      -0.02242909       0.02203868      -0.00154121
H        2.33228866       5.95327683       4.91473252      -0.02374121       0.02625529      -0.00127401
H        2.64750790       3.48126706       4.97827366       0.00685423       0.02211694       0.00006773
H        4.95103823       2.51515349       5.05184901      -0.04150306       0.05262398      -0.00140355
H        6.62405403       6.49321944       4.99820139      -0.05085661      -0.00050050      -0.00141283
H        4.32820494       7.46107261       4.92474611      -0.03005260       0.00563192      -0.00103723
12
Lattice="10.0 0.0 0.0 0.0 10.0 0.0 0.0 0.0 10.0" Properties=species:S:1:pos:R:3:forces:R:3 energy=-1374.1033204902 free_energy=-1374.1033204902 stress="-0.0 -0.0 -0.0 -0.0 -0.0 -0.0 -0.0 -0.0 -0.0" pbc="T T T"
C        3.33840003       5.53308534       4.94675200       0.01503701       0.00043818       0.00083949
C        3.51402050       4.14580246       4.98249222       0.00857853       0.00664563       0.00023427
C        4.80013278       3.59528039       5.02388731       0.02195387      -0.00875145       0.00111949
C        5.89997473       4.45721874       5.02842394       0.01236839      -0.02582507       0.00080799
C        5.74762524       5.84526225       4.99328415       0.02659374      -0.03936096       0.00146610
C        4.45395221       6.37716080       4.95231287       0.01246945       0.00158835      -0.00030554
Br       7.67344358       3.70734675       5.08513100      -0.02351063       0.02139715      -0.00153052
H        2.33399507       5.95346673       4.91476166      -0.02292069       0.01785022      -0.00104220
H        2.64715307       3.48240615       4.97825423       0.01445290       0.00941123       0.00057864
H        4.94747968       2.51614845       5.05177872      -0.01169880       0.01573053       0.00010639
H        6.62256192       6.49448023       4.99813280      -0.02567037       0.00207625      -0.00097646
H        4.32677011       7.45994607       4.92472913      -0.01870048       0.00478066      -0.00081244
