12
Lattice="10.0 0.0 0.0 0.0 10.0 0.0 0.0 0.0 10.0" Properties=species:S:1:pos:R:3:forces:R:3 energy=-1374.1033204902 free_energy=-1374.1033204902 stress="-0.0 -0.0 -0.0 -0.0 -0.0 -0.0 -0.0 -0.0 -0.0" pbc="T T T"
C        3.33840003       5.53308534       4.94675200       0.01503701       0.00043818       0.00083949
C        3.51402050       4.14580246       4.98249222       0.00857853       0.00664563       0.00023427
C        4.80013278       3.59528039       5.02388731       0.02195387      -0.00875145       0.00111949
C        5.89997473       4.45721874       5.02842394       0.01236839      -0.02582507       0.00080799
C        5.74762524       5.84526225       4.99328415       0.02659374      -0.03936096       0.00146610
C        4.45395221       6.37716080       4.95231287       0.01246945       0.00158835      -0.00030554
Br       7.67344358       3.70734675       5.08513100      -0.02351063       0.02139715      -0.00153052
H        2.33399507       5.95346673       4.91476166      -0.02292069       0.01785022      -0.00104220
H        2.64715307       3.48240615       4.97825423       0.01445290       0.00941123       0.00057864
H        4.94747968       2.51614845       5.05177872      -0.01169880       0.01573053       0.00010639
H        6.62256192       6.49448023       4.99813280      -0.02567037       0.00207625      -0.00097646
H        4.32677011       7.45994607       4.92472913      -0.01870048       0.00478066      -0.00081244
