62
Lattice="12.61832051027394 0.0 0.0 6.3091602551369705 10.927786114991452 0.0 0.0 0.0 15.321766940737774" Properties=species:S:1:pos:R:3:move_mask:L:1:tags:I:1:forces:R:3 energy=-66833.821580934 free_energy=-66833.821580934 stress="-0.0 -0.0 -0.0 -0.0 -0.0 -0.0 -0.0 -0.0 -0.0" pbc="T T T"
Cu       0.00000000       0.00000000       5.00000000  F        2       0.02942125       0.01411180      -0.46164627
Cu       2.52366410       1.45703815       7.06056311  F        1      -0.00462137      -0.00427679       0.42082248
Cu       1.26183205       2.18555722       5.00000000  F        2      -0.00013390       0.02056432      -0.47254589
Cu       3.78549615       3.64259537       7.06056311  F        1      -0.01671116       0.00981840       0.44983329
Cu       2.52366410       4.37111445       5.00000000  F        2       0.02130295      -0.01403603      -0.42735699
Cu       5.04732820       5.82815259       7.06056311  F        1      -0.00885537       0.01187366       0.43962965
Cu       3.78549615       6.55667167       5.00000000  F        2      -0.01292413       0.00539535      -0.45885906
Cu       6.30916026       8.01370982       7.06056311  F        1       0.03508918       0.00353429       0.43618875
Cu       5.04732820       8.74222889       5.00000000  F        2      -0.01570176      -0.03435659      -0.47307866
Cu       7.57099231      10.19926704       7.06056311  F        1       0.03920453      -0.03352669       0.43493501
Cu       2.52366410       0.00000000       5.00000000  F        2       0.01305855      -0.01162712      -0.47624091
Cu       5.04732820       1.45703815       7.06056311  F        1      -0.00060340      -0.01888323       0.44942300
Cu       3.78549615       2.18555722       5.00000000  F        2      -0.00558234      -0.00240945      -0.48469956
Cu       6.30916026       3.64259537       7.06056311  F        1       0.01923039       0.01254430       0.44026541
Cu       5.04732820       4.37111445       5.00000000  F        2      -0.01699370       0.01029427      -0.48063804
Cu       7.57099231       5.82815259       7.06056311  F        1      -0.05745882       0.02599835       0.39662695
Cu       6.30916026       6.55667167       5.00000000  F        2       0.03561437      -0.02119130      -0.46780824
Cu       8.83282436       8.01370982       7.06056311  F        1      -0.11580463       0.02874980       0.33008857
Cu       7.57099231       8.74222889       5.00000000  F        2       0.02933393      -0.00835709      -0.46090768
Cu      10.09465641      10.19926704       7.06056311  F        1      -0.03758583       0.05306995       0.44910551
Cu       5.04732820       0.00000000       5.00000000  F        2      -0.00091956       0.02639525      -0.42785454
Cu       7.57099231       1.45703815       7.06056311  F        1       0.00696901      -0.01111322       0.44288152
Cu       6.30916026       2.18555722       5.00000000  F        2       0.00049685      -0.02055412      -0.48212971
Cu       8.83282436       3.64259537       7.06056311  F        1       0.00221332      -0.03660633       0.40759978
Cu       7.57099231       4.37111445       5.00000000  F        2       0.03685731       0.02202772      -0.43901829
Cu      10.09465641       5.82815259       7.06056311  F        1      -0.30194939      -0.18449647       0.07066729
Cu       8.83282436       6.55667167       5.00000000  F        2      -0.04632902      -0.01127226      -0.42752504
Cu      11.35648846       8.01370982       7.06056311  F        1      -0.08063753       0.23610855       0.39248379
Cu      10.09465641       8.74222889       5.00000000  F        2      -0.04985721       0.01483024      -0.42014996
Cu      12.61832051      10.19926704       7.06056311  F        1       0.04161409       0.11412722       0.41437733
Cu       7.57099231       0.00000000       5.00000000  F        2       0.00112651      -0.01260750      -0.45852618
Cu      10.09465641       1.45703815       7.06056311  F        1       0.01739729       0.03749059       0.42878378
Cu       8.83282436       2.18555722       5.00000000  F        2       0.00154388       0.03752725      -0.46957635
Cu      11.35648846       3.64259537       7.06056311  F        1      -0.02334970      -0.11995850       0.33511648
Cu      10.09465641       4.37111445       5.00000000  F        2      -0.03039527      -0.03423144      -0.44041772
Cu      12.61832051       5.82815259       7.06056311  F        1       0.15274615      -0.19822013       0.40095895
Cu      11.35648846       6.55667167       5.00000000  F        2      -0.04814310      -0.02976809      -0.54541963
Cu      13.88015256       8.01370982       7.06056311  F        1       0.31927933       0.17966244       0.25407091
Cu      12.61832051       8.74222889       5.00000000  F        2       0.03950592       0.05131868      -0.47161882
Cu      15.14198461      10.19926704       7.06056311  F        1      -0.03591863      -0.00874413       0.43433348
Cu      10.09465641       0.00000000       5.00000000  F        2      -0.03935426       0.00514313      -0.47440509
Cu      12.61832051       1.45703815       7.06056311  F        1      -0.00710912       0.04985369       0.43296491
Cu      11.35648846       2.18555722       5.00000000  F        2       0.00296127       0.03007072      -0.46834318
Cu      13.88015256       3.64259537       7.06056311  F        1       0.02531286      -0.05710745       0.45075289
Cu      12.61832051       4.37111445       5.00000000  F        2      -0.01087973      -0.04895868      -0.42513364
Cu      15.14198461       5.82815259       7.06056311  F        1       0.11564046      -0.01766664       0.41781928
Cu      13.88015256       6.55667167       5.00000000  F        2       0.06263945       0.00731205      -0.46927419
Cu      16.40381666       8.01370982       7.06056311  F        1      -0.02225475      -0.02596778       0.43769371
Cu      15.14198461       8.74222889       5.00000000  F        2       0.01006599       0.00599108      -0.46801680
Cu      17.66564871      10.19926704       7.06056311  F        1       0.01345532       0.00124497       0.42383918
C        7.81539197       4.84130524      10.24478181  T        0      -0.01304041       0.01218781      -0.02830009
C        8.97514404       4.06095202      10.17267666  T        0       0.02597371       0.01804776      -0.00812249
C       10.22878726       4.66952120      10.00874612  T        0      -0.01773650      -0.01505399      -0.05016599
C       10.26991959       6.06008272       9.91471372  T        0      -0.01884568      -0.01195502       0.01551472
C        9.13721322       6.86735676      10.00792669  T        0      -0.02745309       0.00722811      -0.05241509
C        7.89421223       6.23753997      10.16840233  T        0       0.02596200      -0.01810614       0.01142431
Br      11.98717317       6.92065155       9.50713222  T        0      -0.00320284      -0.00681401       0.02553173
H        6.84279082       4.35722410      10.32208358  T        0      -0.02999302      -0.00800726       0.01601934
H        8.90698509       2.97298760      10.19173768  T        0       0.03492164      -0.00105888       0.03613535
H       11.13244251       4.07178734       9.89405729  T        0       0.02164901      -0.03582087       0.02971866
H        9.20904304       7.94899991       9.89470169  T        0      -0.02335463       0.03027569       0.02573033
H        6.98744374       6.84232809      10.18585541  T        0       0.01293565       0.02045394       0.03318944
