62
Lattice="12.61832051027394 0.0 0.0 6.3091602551369705 10.927786114991452 0.0 0.0 0.0 16.182269580737774" Properties=species:S:1:pos:R:3:move_mask:L:1:tags:I:1:forces:R:3 energy=-66834.238232674 free_energy=-66834.238232674 stress="-0.0 -0.0 -0.0 -0.0 -0.0 -0.0 -0.0 -0.0 -0.0" pbc="T T T"
Cu       0.00000000       0.00000000       5.00000000  F        2       0.03589072       0.00074389      -0.43197045
Cu       2.52366410       1.45703815       7.06056311  F        1       0.14248072      -0.01627320       0.33834492
Cu       1.26183205       2.18555722       5.00000000  F        2      -0.02099338       0.01708657      -0.46390713
Cu       3.78549615       3.64259537       7.06056311  F        1      -0.05770372      -0.00585218       0.49102347
Cu       2.52366410       4.37111445       5.00000000  F        2       0.03921756      -0.02784977      -0.41457545
Cu       5.04732820       5.82815259       7.06056311  F        1       0.00312258      -0.00600280       0.46612610
Cu       3.78549615       6.55667167       5.00000000  F        2      -0.04217501      -0.01054852      -0.49000585
Cu       6.30916026       8.01370982       7.06056311  F        1       0.04016141       0.01818023       0.46403837
Cu       5.04732820       8.74222889       5.00000000  F        2       0.00035596       0.01598983      -0.48839283
Cu       7.57099231      10.19926704       7.06056311  F        1       0.06707904      -0.08018925       0.38623095
Cu       2.52366410       0.00000000       5.00000000  F        2       0.01543166      -0.03750185      -0.44860039
Cu       5.04732820       1.45703815       7.06056311  F        1       0.00158409       0.00245911       0.52000132
Cu       3.78549615       2.18555722       5.00000000  F        2      -0.03940519       0.00181224      -0.50652518
Cu       6.30916026       3.64259537       7.06056311  F        1       0.06310304      -0.00533222       0.49152894
Cu       5.04732820       4.37111445       5.00000000  F        2       0.00004032       0.01174580      -0.53515172
Cu       7.57099231       5.82815259       7.06056311  F        1      -0.06604402      -0.03819231       0.46845237
Cu       6.30916026       6.55667167       5.00000000  F        2       0.04210521      -0.01051712      -0.49004822
Cu       8.83282436       8.01370982       7.06056311  F        1      -0.23586664       0.13509881       0.38495712
Cu       7.57099231       8.74222889       5.00000000  F        2      -0.00045123       0.03428616      -0.47630284
Cu      10.09465641      10.19926704       7.06056311  F        1      -0.05997383       0.09720015       0.46388241
Cu       5.04732820       0.00000000       5.00000000  F        2       0.00022314       0.01186522      -0.49334094
Cu       7.57099231       1.45703815       7.06056311  F        1      -0.13405527      -0.01487310       0.33972155
Cu       6.30916026       2.18555722       5.00000000  F        2       0.03892867       0.00231248      -0.50655850
Cu       8.83282436       3.64259537       7.06056311  F        1      -0.32961167       0.20738853       0.16255075
Cu       7.57099231       4.37111445       5.00000000  F        2      -0.03778862      -0.02801552      -0.41546230
Cu      10.09465641       5.82815259       7.06056311  F        1      -0.38581969      -0.12324976       0.41470553
Cu       8.83282436       6.55667167       5.00000000  F        2      -0.01155495      -0.00572231      -0.40299895
Cu      11.35648846       8.01370982       7.06056311  F        1       0.00201139       0.37417331       0.42838774
Cu      10.09465641       8.74222889       5.00000000  F        2      -0.00069121       0.03768912      -0.46778381
Cu      12.61832051      10.19926704       7.06056311  F        1       0.06494501       0.09678110       0.46323061
Cu       7.57099231       0.00000000       5.00000000  F        2      -0.01503599      -0.03864236      -0.44897474
Cu      10.09465641       1.45703815       7.06056311  F        1      -0.13851518      -0.29469237       0.38832799
Cu       8.83282436       2.18555722       5.00000000  F        2       0.02115934       0.01807610      -0.46366640
Cu      11.35648846       3.64259537       7.06056311  F        1      -0.00230632      -0.45270508       1.25116302
Cu      10.09465641       4.37111445       5.00000000  F        2       0.04557082      -0.03988437      -0.48646968
Cu      12.61832051       5.82815259       7.06056311  F        1       0.39207282      -0.12475544       0.41512750
Cu      11.35648846       6.55667167       5.00000000  F        2       0.00050423       0.02372662      -0.54666024
Cu      13.88015256       8.01370982       7.06056311  F        1       0.24123608       0.13463350       0.38543976
Cu      12.61832051       8.74222889       5.00000000  F        2       0.00199049       0.03793241      -0.46837570
Cu      15.14198461      10.19926704       7.06056311  F        1      -0.06146397      -0.07992622       0.38580816
Cu      10.09465641       0.00000000       5.00000000  F        2      -0.03658641      -0.00022182      -0.43309562
Cu      12.61832051       1.45703815       7.06056311  F        1       0.14726863      -0.29583680       0.38378402
Cu      11.35648846       2.18555722       5.00000000  F        2      -0.00018816       0.04960939      -0.66099443
Cu      13.88015256       3.64259537       7.06056311  F        1       0.33804578       0.21157331       0.15413771
Cu      12.61832051       4.37111445       5.00000000  F        2      -0.04676225      -0.03889895      -0.48523315
Cu      15.14198461       5.82815259       7.06056311  F        1       0.07068879      -0.03806641       0.46815121
Cu      13.88015256       6.55667167       5.00000000  F        2       0.01066793      -0.00373037      -0.40256263
Cu      16.40381666       8.01370982       7.06056311  F        1      -0.03434718       0.01739368       0.46400698
Cu      15.14198461       8.74222889       5.00000000  F        2      -0.00128965       0.03469632      -0.47602609
Cu      17.66564871      10.19926704       7.06056311  F        1       0.00247389      -0.29041773       0.29389076
C       11.35860087       2.36536799       8.77212055  T        0      -0.02271306       0.07815774       0.05312727
C       12.56819636       1.81983967       9.33472479  T        0      -0.00983983      -0.03332999       0.01403393
C       12.56828616       0.70005875      10.19292031  T        0       0.00346779       0.02786823      -0.05427822
C       11.37391944       0.08349037      10.56946073  T        0       0.03931504       0.04090166      -0.04410498
C       10.17267674       0.68764203      10.19842495  T        0      -0.05848293       0.04639516      -0.06404455
C       10.15586162       1.80628775       9.33857089  T        0       0.06010322      -0.02859714       0.01363301
Br      11.35695599       6.56435583       9.09309339  T        0      -0.00024406       0.01318240       0.08102036
H       13.53009170       2.31928513       9.19306695  T        0      -0.01295607       0.07392970      -0.06719091
H       13.52168325       0.29452894      10.53363195  T        0       0.04157924       0.07977677       0.00728499
H       11.38059822      -0.82743539      11.17195407  T        0      -0.00388866       0.09891247      -0.02762456
H        9.22512324       0.27429152      10.54669791  T        0      -0.03635293       0.07823685      -0.00059983
H        9.18856323       2.29507963       9.20089830  T        0      -0.00248157       0.07983365      -0.07373766
