50
Lattice="12.61832051027394 0.0 0.0 6.3091602551369705 10.927786114991452 0.0 0.0 0.0 10.0" Properties=species:S:1:pos:R:3:tags:I:1:forces:R:3 energy=-65458.415624162 free_energy=-65458.415624162 stress="-0.0 -0.0 -0.0 -0.0 -0.0 -0.0 -0.0 -0.0 -0.0" pbc="T T T"
Cu       0.00000000       0.00000000       0.00000000        2       0.07334059       0.04216811      -0.35907344
Cu       2.52366410       1.45703815       2.06056311        1      -0.03480299      -0.02636269       0.31251385
Cu       1.26183205       2.18555722       0.00000000        2      -0.06169201      -0.03863525      -0.39257694
Cu       3.78549615       3.64259537       2.06056311        1       0.07840268       0.03194573       0.32990332
Cu       2.52366410       4.37111445       0.00000000        2       0.03633425       0.02624426      -0.36988535
Cu       5.04732820       5.82815259       2.06056311        1      -0.04663995      -0.02608385       0.30671698
Cu       3.78549615       6.55667167       0.00000000        2       0.01387080       0.00430046      -0.38681646
Cu       6.30916026       8.01370982       2.06056311        1       0.04184729       0.01862994       0.34039810
Cu       5.04732820       8.74222889       0.00000000        2      -0.02456227      -0.04393109      -0.37191721
Cu       7.57099231      10.19926704       2.06056311        1      -0.00518859      -0.01121052       0.33178827
Cu       2.52366410       0.00000000       0.00000000        2      -0.06209074      -0.03444277      -0.38935849
Cu       5.04732820       1.45703815       2.06056311        1       0.07398809       0.02648170       0.34169554
Cu       3.78549615       2.18555722       0.00000000        2       0.03533207       0.01529048      -0.37895843
Cu       6.30916026       3.64259537       2.06056311        1      -0.04330259      -0.02782681       0.33576300
Cu       5.04732820       4.37111445       0.00000000        2       0.01528297       0.01432833      -0.38444371
Cu       7.57099231       5.82815259       2.06056311        1       0.04084434       0.01766697       0.33550003
Cu       6.30916026       6.55667167       0.00000000        2      -0.03092454      -0.02242317      -0.40744603
Cu       8.83282436       8.01370982       2.06056311        1      -0.00285744      -0.00301641       0.33401683
Cu       7.57099231       8.74222889       0.00000000        2       0.04972566       0.02056894      -0.37085273
Cu      10.09465641      10.19926704       2.06056311        1      -0.01938464      -0.01577168       0.33272898
Cu       5.04732820       0.00000000       0.00000000        2       0.04614370       0.01680429      -0.36664079
Cu       7.57099231       1.45703815       2.06056311        1      -0.08509046      -0.02883292       0.32755507
Cu       6.30916026       2.18555722       0.00000000        2      -0.01826108       0.00201776      -0.36740129
Cu       8.83282436       3.64259537       2.06056311        1       0.02215512       0.04860305       0.35707937
Cu       7.57099231       4.37111445       0.00000000        2      -0.05136581       0.01112433      -0.37329809
Cu      10.09465641       5.82815259       2.06056311        1      -0.01706464      -0.00096154       0.33216421
Cu       8.83282436       6.55667167       0.00000000        2       0.04118406       0.02912208      -0.37769505
Cu      11.35648846       8.01370982       2.06056311        1      -0.02383273      -0.01317690       0.32853343
Cu      10.09465641       8.74222889       0.00000000        2      -0.05981229      -0.03727250      -0.38604245
Cu      12.61832051      10.19926704       2.06056311        1       0.04732587       0.02930380       0.34775361
Cu       7.57099231       0.00000000       0.00000000        2      -0.01377293      -0.01292173      -0.36674805
Cu      10.09465641       1.45703815       2.06056311        1       0.04235703       0.03868798       0.31303011
Cu       8.83282436       2.18555722       0.00000000        2      -0.03315384      -0.01865868      -0.36940503
Cu      11.35648846       3.64259537       2.06056311        1      -0.00137500       0.00975969       0.32147186
Cu      10.09465641       4.37111445       0.00000000        2       0.07726275       0.04972346      -0.34921615
Cu      12.61832051       5.82815259       2.06056311        1      -0.04333507      -0.02439604       0.31316093
Cu      11.35648846       6.55667167       0.00000000        2      -0.05609598      -0.02635785      -0.39301609
Cu      13.88015256       8.01370982       2.06056311        1       0.05227191       0.04830142       0.33301986
Cu      12.61832051       8.74222889       0.00000000        2       0.04131578       0.02338533      -0.36962529
Cu      15.14198461      10.19926704       2.06056311        1      -0.07939656      -0.05795666       0.30659217
Cu      10.09465641       0.00000000       0.00000000        2      -0.03423541      -0.02946704      -0.38644265
Cu      12.61832051       1.45703815       2.06056311        1       0.01179495      -0.00213510       0.31185259
Cu      11.35648846       2.18555722       0.00000000        2       0.07879035       0.04304010      -0.37288230
Cu      13.88015256       3.64259537       2.06056311        1      -0.04971694      -0.02298299       0.31991260
Cu      12.61832051       4.37111445       0.00000000        2      -0.05985946      -0.03102484      -0.39137906
Cu      15.14198461       5.82815259       2.06056311        1       0.06371194       0.04464435       0.32754408
Cu      13.88015256       6.55667167       0.00000000        2       0.03380968       0.03362047      -0.38223607
Cu      16.40381666       8.01370982       2.06056311        1      -0.04518686      -0.03321442       0.33038545
Cu      15.14198461       8.74222889       0.00000000        2      -0.00932925      -0.01485595      -0.37857312
Cu      17.66564871      10.19926704       2.06056311        1       0.06359451      -0.00221366       0.33844214
